Self 0 0:     -29.71552561
Self 0 1:      21.37029237
Self 0 2:      10.39995930
Self 0 3:      10.30763104
Self 0 4:    1033.54463158
Self 0 5:     786.38960112
Self 0 6:    2778.63329548
Self 1 0:     248.76111298
Self 1 1:     476.38386548
Self 1 2:     220.23185292
Self 1 3:     224.41686857
Self 1 4:     447.25099354
Self 1 5:      11.71783513
Self 1 6:      15.24847983
Self 2 0:      17.18685531
Self 2 1:     802.85614610
Self 2 2:      49.00565653
Self 2 3:     314.05938490
Self 2 4:     939.79260053
Self 3 0:     -40.46477429
Self 3 1:     -40.46477429
Self 3 2:    -219.16096754
Self 3 3:    -219.16096754
Self 3 4:    -249.84498740
Self 4 0:    1695.94942218
Self 4 1:    4198.87916339
Self 4 2:     411.80639699
Self 4 3:      22.21621911
Self 4 4:      10.50687280
Pair 0 0, 1 5:       0.02118601
Pair 0 0, 1 6:       0.02879639
Pair 0 0, 2 0:       0.08541933
Pair 0 0, 3 4:      -0.62169907
Pair 0 0, 4 3:       0.03844911
Pair 0 0, 4 4:       0.03949816
Pair 1 5, 2 0:       0.07575028
Pair 1 5, 3 4:      -0.42146659
Pair 1 5, 4 3:       0.03154547
Pair 1 5, 4 4:       0.03204349
Pair 1 6, 2 0:       0.07349380
Pair 1 6, 3 4:      -0.41016365
Pair 1 6, 4 3:       0.03067254
Pair 1 6, 4 4:       0.03112794
Pair 2 0, 3 4:      -0.55739000
Pair 2 0, 4 3:       0.03457149
Pair 2 0, 4 4:       0.03529429
Pair 3 4, 4 3:      -0.50787999
Pair 3 4, 4 4:      -0.52050808
Self 0 0:      19.73826269
Self 0 1:      23.44140279
Self 0 2:      13.83580311
Self 0 3:      13.22235315
Self 0 4:      15.35535603
Self 0 5:      20.80290211
Self 0 6:      16.38568588
Self 0 7:    1519.83430641
Self 0 8:    1778.80363192
Self 0 9:   43039.16560162
Self 0 10:   49985.96598754
Self 0 11:      19.97936898
Self 0 12:      18.78025773
Self 0 13:      24.85863128
Self 0 14:     118.07826276
Self 0 15:      28.03793734
Self 0 16:      28.09792569
Self 0 17:      31.91420972
Self 0 18:      28.42777444
Self 0 19:     124.39711664
Self 0 20:      29.92531143
Self 0 21:      17.23068371
Self 0 22:      21.35121723
Self 0 23:      24.12921978
Self 0 24:      23.79805315
Self 0 25:      25.06171890
Self 0 26:      18.68578045
Self 0 27:      15.03485314
Self 0 28:      19.77168759
Self 0 29:      20.70641294
Self 0 30:      17.21721940
Self 0 31:      44.46588416
Self 0 32:    5813.50608826
Self 0 33:      66.64938214
Self 1 0:      20.64347022
Self 1 1:      20.62794906
Self 1 2:      24.40641547
Self 1 3:      23.30126957
Self 1 4:      24.17263145
Self 1 5:      21.33861978
Self 1 6:      58.11068456
Self 1 7:      55.58670719
Self 1 8:      59.33545499
Self 1 9:      59.30965858
Self 1 10:      56.97089261
Self 1 11:      60.05934836
Self 1 12:       2.70513666
Self 1 13:       2.54858864
Self 1 14:       3.16649195
Self 1 15:       2.35761014
Self 1 16:      -2.61761073
Self 1 17:       1.76739227
Self 2 0:      24.60592234
Self 2 1:      31.45753351
Self 2 2:      34.56679519
Self 2 3:      27.48909328
Self 2 4:      99.70764668
Self 2 5:   26671.71845111
Self 2 6: 10000000000000000000000000000000000000000000000000000000000000000000000000000000000000000000000000000.00000000
Self 2 7:   37728.38410161
Self 2 8:    8756.98038559
Self 2 9:     420.68458270
Self 2 10:    3567.22745201
Self 2 11:    3244.11411602
Self 2 12:   63106.46657126
Self 2 13:     575.17423578
Self 2 14:   33065.46168896
Self 2 15:   11336.85522197
Self 2 16:     625.76831042
Self 2 17:     366.59042794
Self 2 18:     733.88350324
Self 2 19:    1220.25326110
Self 2 20:    3330.63797185
Self 2 21:      53.20070911
Self 2 22:      51.19967291
Self 2 23:   20950.85311209
Self 2 24:   39503.70456123
Self 2 25: 10000000000000000000000000000000000000000000000000000000000000000000000000000000000000000000000000000.00000000
Self 2 26:   26075.63508271
Self 3 0:     -82.16460927
Self 3 1:     -90.85507520
Self 3 2:     -76.49008554
Self 3 3:     -76.75897221
Self 3 4:     -86.82080449
Self 3 5:     -91.37729615
Self 3 6:     -78.31767725
Self 3 7:     -77.46912811
Self 4 0:    -154.12003888
Self 4 1:    -154.12003888
Self 4 2:    -161.08455111
Self 4 3:    -161.08455111
Self 4 4:    -184.12111395
Self 5 0:     120.72960825
Self 5 1:      92.17732863
Self 5 2:     111.76637991
Self 5 3:     107.25949881
Self 5 4:     137.28177793
Self 5 5:      94.41202778
Self 5 6:     113.54005145
Self 5 7:     113.55260067
Self 5 8:     115.33576750
Self 5 9:     150.84866532
Self 5 10:     110.88946579
Self 5 11:     112.60202882
Self 5 12:      95.25324352
Self 5 13:     126.92695356
Self 5 14:     125.63370357
Self 5 15:     311.80198516
Self 5 16:     158.06326651
Self 5 17:     118.35477719
Self 5 18:     115.90023144
Self 5 19:     119.07851461
Self 5 20:     146.88069205
Self 5 21:     119.76500121
Self 5 22:     118.34840739
Self 5 23:     153.83510456
Self 5 24:     575.01222469
Self 5 25:     146.24725657
Self 5 26:     117.92744766
Self 6 0:    6895.10865302
Self 6 1:      87.73457260
Self 6 2:     108.87771286
Self 6 3:      92.15875974
Self 6 4:     317.36587352
Self 6 5:      71.79256511
Self 6 6:      65.69524076
Self 6 7:  413076.88230450
Self 6 8:   23261.30796770
Self 6 9:      55.87166646
Self 6 10:     108.98493141
Self 6 11:      49.95262784
Self 6 12:      65.78491541
Self 6 13:      72.96305759
Self 6 14:     296.39657810
Self 6 15:      56.92022110
Self 6 16:      43.30887329
Self 6 17:   22958.91147698
Self 6 18:   17566.76120837
Self 6 19:   20222.42664655
Self 6 20:  125696.77666093
Self 6 21:     131.87126129
Self 6 22:     136.05207488
Self 6 23:  648490.33098123
Self 6 24:    1679.94483600
Self 6 25: 1184102.12883629
Self 6 26:     154.10903626
Self 6 27:     149.80936492
Self 6 28:     353.68686148
Self 6 29: 10000000000000000000000000000000000000000000000000000000000000000000000000000000000000000000000000000.00000000
Self 6 30:   85500.44640405
Self 6 31:   12424.57518319
Self 6 32:     508.45244300
Self 6 33:   46156.20744412
Self 7 0:     -10.30241868
Self 7 1:    3252.38448849
Self 7 2:      -2.12640435
Self 7 3:     -14.62194901
Self 7 4:     -13.15538160
Self 7 5:   15548.96327972
Self 7 6:     -12.43294892
Self 7 7:      -9.99273994
Self 7 8:      -5.46426671
Self 8 0:     175.85641948
Self 8 1:    1305.83870212
Self 8 2:    1069.08240035
Self 8 3:   23104.77009841
Self 8 4:     173.80266829
Self 8 5:     133.17316841
Self 8 6:     138.78302004
Self 8 7:     139.86294995
Self 8 8:     136.36907079
Self 8 9:     138.07947960
Self 8 10:     138.94577888
Self 8 11:     137.40192807
Self 8 12:     136.23848702
Self 8 13:     141.86119564
Self 8 14:     143.60079353
Self 8 15:     159.75638775
Self 8 16:     187.07984416
Self 8 17:     139.08610502
Self 8 18:     143.53271414
Self 8 19:     142.10865674
Self 8 20:     143.47318784
Self 8 21:     140.42037406
Self 8 22:     202.40904716
Self 8 23:     147.11838157
Self 8 24:     145.91743894
Self 8 25:     152.09884688
Self 8 26:     141.94114549
Self 9 0:       0.54705606
Self 9 1:      -4.82688112
Self 9 2:      -2.08754026
Self 9 3:       3.40353455
Self 9 4:       6.61861273
Self 9 5:      19.15551552
Self 9 6:      32.40110593
Self 9 7:      33.12495641
Self 9 8:      37.02104194
Self 9 9:      41.60981291
Self 9 10:      43.45350794
Self 9 11:      59.78153843
Self 9 12:     161.26454499
Self 9 13:     160.31431614
Self 9 14:     164.08785381
Self 9 15:     163.13169591
Self 9 16:     160.02411605
Self 9 17:     163.92214835
Pair 0 0, 1 12:       2.44201404
Pair 0 0, 1 13:       1.66684920
Pair 0 0, 1 14:       1.62217189
Pair 0 0, 1 15:       2.27489989
Pair 0 0, 1 16:       3.45654307
Pair 0 0, 1 17:       3.31338075
Pair 0 0, 2 0:       8.60599923
Pair 0 0, 2 1:       8.48634780
Pair 0 0, 2 2:       8.41221638
Pair 0 0, 2 3:       8.38249042
Pair 0 0, 3 0:      -7.07961841
Pair 0 0, 3 1:      -7.33823049
Pair 0 0, 3 2:      -7.23344895
Pair 0 0, 3 3:      -7.04050622
Pair 0 0, 3 4:      -7.49398628
Pair 0 0, 3 5:      -7.09101993
Pair 0 0, 3 6:      -6.88790411
Pair 0 0, 3 7:      -7.08424371
Pair 0 0, 4 4:      -6.11273168
Pair 0 0, 5 1:       6.41865943
Pair 0 0, 5 2:       6.49814236
Pair 0 0, 5 3:       6.33129280
Pair 0 0, 5 5:       6.23067236
Pair 0 0, 5 10:       6.34038811
Pair 0 0, 5 12:       6.42767060
Pair 0 0, 6 9:       7.22019784
Pair 0 0, 6 11:       7.25424164
Pair 0 0, 6 15:       7.54008823
Pair 0 0, 6 16:       7.35608179
Pair 0 0, 7 0:       0.42464087
Pair 0 0, 7 2:       0.45308502
Pair 0 0, 7 3:       0.45317378
Pair 0 0, 7 4:       0.41063079
Pair 0 0, 7 6:       0.45367389
Pair 0 0, 7 7:       0.48530336
Pair 0 0, 7 8:       0.40588403
Pair 0 0, 8 5:       6.58516324
Pair 0 0, 8 6:       6.48647837
Pair 0 0, 8 7:       6.40325817
Pair 0 0, 8 8:       6.36227468
Pair 0 0, 8 9:       6.21444727
Pair 0 0, 8 10:       6.37798263
Pair 0 0, 8 11:       6.28781682
Pair 0 0, 8 12:       6.43937451
Pair 0 0, 8 13:       6.15472428
Pair 0 0, 8 14:       6.25139106
Pair 0 0, 8 17:       6.13759077
Pair 0 0, 8 18:       6.00968314
Pair 0 0, 8 19:       6.00787311
Pair 0 0, 8 20:       6.09897840
Pair 0 0, 8 21:       6.03543762
Pair 0 0, 8 23:       6.10661550
Pair 0 0, 8 24:       6.18261888
Pair 0 0, 8 25:       6.12537643
Pair 0 0, 8 26:       6.31896137
Pair 0 0, 9 0:       0.61278085
Pair 0 0, 9 1:       0.61694744
Pair 0 0, 9 2:       0.63220696
Pair 0 0, 9 3:       0.64080778
Pair 0 0, 9 4:       0.62247917
Pair 0 1, 1 12:       2.32832613
Pair 0 1, 1 13:       1.59959429
Pair 0 1, 1 14:       1.59386496
Pair 0 1, 1 15:       2.23198535
Pair 0 1, 1 16:       3.30850007
Pair 0 1, 1 17:       3.18233168
Pair 0 1, 2 0:       8.47012096
Pair 0 1, 2 1:       8.35381142
Pair 0 1, 2 2:       8.28045863
Pair 0 1, 2 3:       8.25517096
Pair 0 1, 3 0:      -6.96267609
Pair 0 1, 3 1:      -7.21863186
Pair 0 1, 3 2:      -7.11035146
Pair 0 1, 3 3:      -6.92166839
Pair 0 1, 3 4:      -7.36109589
Pair 0 1, 3 5:      -6.97914388
Pair 0 1, 3 6:      -6.77719839
Pair 0 1, 3 7:      -6.96916152
Pair 0 1, 4 4:      -6.10252294
Pair 0 1, 5 1:       6.38606676
Pair 0 1, 5 2:       6.46242015
Pair 0 1, 5 3:       6.29870929
Pair 0 1, 5 5:       6.19775427
Pair 0 1, 5 10:       6.30347829
Pair 0 1, 5 12:       6.39210196
Pair 0 1, 6 9:       7.19555189
Pair 0 1, 6 11:       7.23907902
Pair 0 1, 6 15:       7.52156259
Pair 0 1, 6 16:       7.33890141
Pair 0 1, 7 0:       0.42259937
Pair 0 1, 7 2:       0.45304625
Pair 0 1, 7 3:       0.45136553
Pair 0 1, 7 4:       0.41027197
Pair 0 1, 7 6:       0.45369343
Pair 0 1, 7 7:       0.48449647
Pair 0 1, 7 8:       0.40539860
Pair 0 1, 8 5:       6.53086620
Pair 0 1, 8 6:       6.43255439
Pair 0 1, 8 7:       6.35255114
Pair 0 1, 8 8:       6.31460511
Pair 0 1, 8 9:       6.16927498
Pair 0 1, 8 10:       6.32813753
Pair 0 1, 8 11:       6.24119108
Pair 0 1, 8 12:       6.39017491
Pair 0 1, 8 13:       6.10869363
Pair 0 1, 8 14:       6.20238097
Pair 0 1, 8 17:       6.09171539
Pair 0 1, 8 18:       5.96347142
Pair 0 1, 8 19:       5.96274574
Pair 0 1, 8 20:       6.05113021
Pair 0 1, 8 21:       5.99108199
Pair 0 1, 8 23:       6.05829987
Pair 0 1, 8 24:       6.13159614
Pair 0 1, 8 25:       6.07558893
Pair 0 1, 8 26:       6.26693152
Pair 0 1, 9 0:       0.60607919
Pair 0 1, 9 1:       0.61020294
Pair 0 1, 9 2:       0.62560824
Pair 0 1, 9 3:       0.63449559
Pair 0 1, 9 4:       0.61608629
Pair 0 2, 1 12:       2.49576272
Pair 0 2, 1 13:       1.75989466
Pair 0 2, 1 14:       1.53825965
Pair 0 2, 1 15:       1.80316240
Pair 0 2, 1 16:       3.01930940
Pair 0 2, 1 17:       2.47110578
Pair 0 2, 2 0:       8.37899323
Pair 0 2, 2 1:       8.27956271
Pair 0 2, 2 2:       8.20168061
Pair 0 2, 2 3:       8.17395784
Pair 0 2, 3 0:      -6.86210562
Pair 0 2, 3 1:      -7.10736582
Pair 0 2, 3 2:      -6.99423793
Pair 0 2, 3 3:      -6.81938187
Pair 0 2, 3 4:      -7.25099858
Pair 0 2, 3 5:      -6.86663447
Pair 0 2, 3 6:      -6.67343067
Pair 0 2, 3 7:      -6.85204732
Pair 0 2, 4 4:      -6.01815897
Pair 0 2, 5 1:       6.27248373
Pair 0 2, 5 2:       6.34955233
Pair 0 2, 5 3:       6.19196045
Pair 0 2, 5 5:       6.08088235
Pair 0 2, 5 10:       6.18701967
Pair 0 2, 5 12:       6.27154963
Pair 0 2, 6 9:       6.98380861
Pair 0 2, 6 11:       7.02466950
Pair 0 2, 6 15:       7.28923393
Pair 0 2, 6 16:       7.11493210
Pair 0 2, 7 0:       0.41231158
Pair 0 2, 7 2:       0.43973856
Pair 0 2, 7 3:       0.43756865
Pair 0 2, 7 4:       0.39801590
Pair 0 2, 7 6:       0.43973788
Pair 0 2, 7 7:       0.46935728
Pair 0 2, 7 8:       0.39367972
Pair 0 2, 8 5:       6.43619485
Pair 0 2, 8 6:       6.34447012
Pair 0 2, 8 7:       6.26415312
Pair 0 2, 8 8:       6.21896304
Pair 0 2, 8 9:       6.07888850
Pair 0 2, 8 10:       6.23998242
Pair 0 2, 8 11:       6.15371318
Pair 0 2, 8 12:       6.29684479
Pair 0 2, 8 13:       6.02369676
Pair 0 2, 8 14:       6.11657462
Pair 0 2, 8 17:       6.00696420
Pair 0 2, 8 18:       5.87872472
Pair 0 2, 8 19:       5.88063850
Pair 0 2, 8 20:       5.96841407
Pair 0 2, 8 21:       5.90420872
Pair 0 2, 8 23:       5.97531943
Pair 0 2, 8 24:       6.04924792
Pair 0 2, 8 25:       5.99033328
Pair 0 2, 8 26:       6.18172254
Pair 0 2, 9 0:       0.59407739
Pair 0 2, 9 1:       0.59705958
Pair 0 2, 9 2:       0.61089884
Pair 0 2, 9 3:       0.61961037
Pair 0 2, 9 4:       0.60360739
Pair 0 3, 1 12:       2.35859483
Pair 0 3, 1 13:       1.65937617
Pair 0 3, 1 14:       1.53074571
Pair 0 3, 1 15:       1.90514086
Pair 0 3, 1 16:       2.98709855
Pair 0 3, 1 17:       2.60389643
Pair 0 3, 2 0:       8.29984006
Pair 0 3, 2 1:       8.19606056
Pair 0 3, 2 2:       8.12213967
Pair 0 3, 2 3:       8.09491710
Pair 0 3, 3 0:      -6.81646623
Pair 0 3, 3 1:      -7.05863272
Pair 0 3, 3 2:      -6.95402173
Pair 0 3, 3 3:      -6.77720159
Pair 0 3, 3 4:      -7.20212487
Pair 0 3, 3 5:      -6.82427057
Pair 0 3, 3 6:      -6.63371426
Pair 0 3, 3 7:      -6.81417711
Pair 0 3, 4 4:      -5.97784357
Pair 0 3, 5 1:       6.24599958
Pair 0 3, 5 2:       6.32087171
Pair 0 3, 5 3:       6.16410008
Pair 0 3, 5 5:       6.06038523
Pair 0 3, 5 10:       6.16377310
Pair 0 3, 5 12:       6.24832827
Pair 0 3, 6 9:       6.98980549
Pair 0 3, 6 11:       7.03134112
Pair 0 3, 6 15:       7.29707708
Pair 0 3, 6 16:       7.12387841
Pair 0 3, 7 0:       0.41198011
Pair 0 3, 7 2:       0.44046348
Pair 0 3, 7 3:       0.43853192
Pair 0 3, 7 4:       0.39928034
Pair 0 3, 7 6:       0.44084169
Pair 0 3, 7 7:       0.47018945
Pair 0 3, 7 8:       0.39480340
Pair 0 3, 8 5:       6.39745109
Pair 0 3, 8 6:       6.30498597
Pair 0 3, 8 7:       6.22646261
Pair 0 3, 8 8:       6.18536822
Pair 0 3, 8 9:       6.04600378
Pair 0 3, 8 10:       6.20269458
Pair 0 3, 8 11:       6.11793375
Pair 0 3, 8 12:       6.26050579
Pair 0 3, 8 13:       5.98966605
Pair 0 3, 8 14:       6.08099065
Pair 0 3, 8 17:       5.97319483
Pair 0 3, 8 18:       5.84778584
Pair 0 3, 8 19:       5.84842294
Pair 0 3, 8 20:       5.93471012
Pair 0 3, 8 21:       5.87356300
Pair 0 3, 8 23:       5.94160395
Pair 0 3, 8 24:       6.01381790
Pair 0 3, 8 25:       5.95740879
Pair 0 3, 8 26:       6.14459809
Pair 0 3, 9 0:       0.59144518
Pair 0 3, 9 1:       0.59495062
Pair 0 3, 9 2:       0.60919302
Pair 0 3, 9 3:       0.61769696
Pair 0 3, 9 4:       0.60090973
Pair 0 4, 1 12:       2.57742680
Pair 0 4, 1 13:       1.81130087
Pair 0 4, 1 14:       1.64694571
Pair 0 4, 1 15:       2.02010687
Pair 0 4, 1 16:       3.27133753
Pair 0 4, 1 17:       2.80929538
Pair 0 4, 2 0:       8.46256912
Pair 0 4, 2 1:       8.35307220
Pair 0 4, 2 2:       8.27854986
Pair 0 4, 2 3:       8.24755313
Pair 0 4, 3 0:      -6.95659580
Pair 0 4, 3 1:      -7.20409370
Pair 0 4, 3 2:      -7.10204802
Pair 0 4, 3 3:      -6.91877009
Pair 0 4, 3 4:      -7.35990538
Pair 0 4, 3 5:      -6.96142515
Pair 0 4, 3 6:      -6.76742797
Pair 0 4, 3 7:      -6.95438270
Pair 0 4, 4 4:      -6.01333433
Pair 0 4, 5 1:       6.30560551
Pair 0 4, 5 2:       6.38371597
Pair 0 4, 5 3:       6.22258553
Pair 0 4, 5 5:       6.11973043
Pair 0 4, 5 10:       6.22734309
Pair 0 4, 5 12:       6.31147428
Pair 0 4, 6 9:       7.05542960
Pair 0 4, 6 11:       7.08847512
Pair 0 4, 6 15:       7.36079017
Pair 0 4, 6 16:       7.18440488
Pair 0 4, 7 0:       0.41609245
Pair 0 4, 7 2:       0.44310362
Pair 0 4, 7 3:       0.44288255
Pair 0 4, 7 4:       0.40189420
Pair 0 4, 7 6:       0.44348182
Pair 0 4, 7 7:       0.47390170
Pair 0 4, 7 8:       0.39745452
Pair 0 4, 8 5:       6.47606705
Pair 0 4, 8 6:       6.38206105
Pair 0 4, 8 7:       6.30021614
Pair 0 4, 8 8:       6.25690502
Pair 0 4, 8 9:       6.11397995
Pair 0 4, 8 10:       6.27550623
Pair 0 4, 8 11:       6.18727837
Pair 0 4, 8 12:       6.33357247
Pair 0 4, 8 13:       6.05758301
Pair 0 4, 8 14:       6.15218668
Pair 0 4, 8 17:       6.04085998
Pair 0 4, 8 18:       5.91517559
Pair 0 4, 8 19:       5.91452303
Pair 0 4, 8 20:       6.00379318
Pair 0 4, 8 21:       5.93958797
Pair 0 4, 8 23:       6.01118237
Pair 0 4, 8 24:       6.08615989
Pair 0 4, 8 25:       6.02866716
Pair 0 4, 8 26:       6.21882019
Pair 0 4, 9 0:       0.60076351
Pair 0 4, 9 1:       0.60443673
Pair 0 4, 9 2:       0.61878086
Pair 0 4, 9 3:       0.62709365
Pair 0 4, 9 4:       0.61004867
Pair 0 5, 1 12:       2.20639733
Pair 0 5, 1 13:       1.55274190
Pair 0 5, 1 14:       1.42042847
Pair 0 5, 1 15:       1.76218153
Pair 0 5, 1 16:       2.73568964
Pair 0 5, 1 17:       2.36403718
Pair 0 5, 2 0:       8.37489338
Pair 0 5, 2 1:       8.27108730
Pair 0 5, 2 2:       8.19342190
Pair 0 5, 2 3:       8.17200995
Pair 0 5, 3 0:      -6.85205152
Pair 0 5, 3 1:      -7.10501936
Pair 0 5, 3 2:      -6.98320620
Pair 0 5, 3 3:      -6.80516580
Pair 0 5, 3 4:      -7.23361529
Pair 0 5, 3 5:      -6.86728851
Pair 0 5, 3 6:      -6.66659117
Pair 0 5, 3 7:      -6.84801948
Pair 0 5, 4 4:      -6.11814094
Pair 0 5, 5 1:       6.34935875
Pair 0 5, 5 2:       6.42456462
Pair 0 5, 5 3:       6.26526515
Pair 0 5, 5 5:       6.15279880
Pair 0 5, 5 10:       6.25690731
Pair 0 5, 5 12:       6.34613660
Pair 0 5, 6 9:       7.10402359
Pair 0 5, 6 11:       7.15809315
Pair 0 5, 6 15:       7.42972194
Pair 0 5, 6 16:       7.24978973
Pair 0 5, 7 0:       0.41790994
Pair 0 5, 7 2:       0.44880890
Pair 0 5, 7 3:       0.44445967
Pair 0 5, 7 4:       0.40526078
Pair 0 5, 7 6:       0.44891268
Pair 0 5, 7 7:       0.47865789
Pair 0 5, 7 8:       0.40054385
Pair 0 5, 8 5:       6.48611163
Pair 0 5, 8 6:       6.39064064
Pair 0 5, 8 7:       6.31244017
Pair 0 5, 8 8:       6.27183870
Pair 0 5, 8 9:       6.12998774
Pair 0 5, 8 10:       6.28868230
Pair 0 5, 8 11:       6.20410640
Pair 0 5, 8 12:       6.34921913
Pair 0 5, 8 13:       6.07092451
Pair 0 5, 8 14:       6.16255965
Pair 0 5, 8 17:       6.05390345
Pair 0 5, 8 18:       5.92207199
Pair 0 5, 8 19:       5.92470962
Pair 0 5, 8 20:       6.01133433
Pair 0 5, 8 21:       5.95108627
Pair 0 5, 8 23:       6.01788587
Pair 0 5, 8 24:       6.08999535
Pair 0 5, 8 25:       6.03198718
Pair 0 5, 8 26:       6.22533367
Pair 0 5, 9 0:       0.59802673
Pair 0 5, 9 1:       0.60119451
Pair 0 5, 9 2:       0.61588042
Pair 0 5, 9 3:       0.62529120
Pair 0 5, 9 4:       0.60834157
Pair 0 6, 1 12:       2.30104153
Pair 0 6, 1 13:       1.61363892
Pair 0 6, 1 14:       1.41057407
Pair 0 6, 1 15:       1.70659970
Pair 0 6, 1 16:       2.79973383
Pair 0 6, 1 17:       2.34877335
Pair 0 6, 2 0:       8.43944770
Pair 0 6, 2 1:       8.34047719
Pair 0 6, 2 2:       8.25939009
Pair 0 6, 2 3:       8.23618977
Pair 0 6, 3 0:      -6.88984213
Pair 0 6, 3 1:      -7.14357465
Pair 0 6, 3 2:      -7.01636235
Pair 0 6, 3 3:      -6.84089850
Pair 0 6, 3 4:      -7.27542321
Pair 0 6, 3 5:      -6.89988910
Pair 0 6, 3 6:      -6.69871587
Pair 0 6, 3 7:      -6.87775431
Pair 0 6, 4 4:      -6.12846640
Pair 0 6, 5 1:       6.35268975
Pair 0 6, 5 2:       6.43012426
Pair 0 6, 5 3:       6.27060863
Pair 0 6, 5 5:       6.15217431
Pair 0 6, 5 10:       6.25899783
Pair 0 6, 5 12:       6.34713835
Pair 0 6, 6 9:       7.06957946
Pair 0 6, 6 11:       7.12024058
Pair 0 6, 6 15:       7.38911443
Pair 0 6, 6 16:       7.20959108
Pair 0 6, 7 0:       0.41679853
Pair 0 6, 7 2:       0.44603137
Pair 0 6, 7 3:       0.44194088
Pair 0 6, 7 4:       0.40244299
Pair 0 6, 7 6:       0.44578846
Pair 0 6, 7 7:       0.47571358
Pair 0 6, 7 8:       0.39793243
Pair 0 6, 8 5:       6.50564729
Pair 0 6, 8 6:       6.41169485
Pair 0 6, 8 7:       6.33155374
Pair 0 6, 8 8:       6.28646574
Pair 0 6, 8 9:       6.14449244
Pair 0 6, 8 10:       6.30737936
Pair 0 6, 8 11:       6.22120553
Pair 0 6, 8 12:       6.36626315
Pair 0 6, 8 13:       6.08729181
Pair 0 6, 8 14:       6.18046329
Pair 0 6, 8 17:       6.07012129
Pair 0 6, 8 18:       5.93671197
Pair 0 6, 8 19:       5.94029698
Pair 0 6, 8 20:       6.02838747
Pair 0 6, 8 21:       5.96469715
Pair 0 6, 8 23:       6.03501876
Pair 0 6, 8 24:       6.10894402
Pair 0 6, 8 25:       6.04862042
Pair 0 6, 8 26:       6.24502795
Pair 0 6, 9 0:       0.59913071
Pair 0 6, 9 1:       0.60180434
Pair 0 6, 9 2:       0.61594968
Pair 0 6, 9 3:       0.62538323
Pair 0 6, 9 4:       0.60932670
Pair 0 11, 1 12:       1.78827177
Pair 0 11, 1 13:       0.96428692
Pair 0 11, 1 14:       0.69904549
Pair 0 11, 1 15:       1.00475727
Pair 0 11, 1 16:       2.45403411
Pair 0 11, 1 17:       1.82943174
Pair 0 11, 2 0:       8.43734239
Pair 0 11, 2 1:       8.33860583
Pair 0 11, 2 2:       8.25645103
Pair 0 11, 2 3:       8.23671512
Pair 0 11, 3 0:      -6.87790579
Pair 0 11, 3 1:      -7.13523189
Pair 0 11, 3 2:      -7.00114476
Pair 0 11, 3 3:      -6.82583533
Pair 0 11, 3 4:      -7.25820058
Pair 0 11, 3 5:      -6.89232992
Pair 0 11, 3 6:      -6.68752837
Pair 0 11, 3 7:      -6.86627711
Pair 0 11, 4 4:      -6.17958660
Pair 0 11, 5 1:       6.38494687
Pair 0 11, 5 2:       6.46196320
Pair 0 11, 5 3:       6.30195932
Pair 0 11, 5 5:       6.18018678
Pair 0 11, 5 10:       6.28658067
Pair 0 11, 5 12:       6.37678855
Pair 0 11, 6 9:       7.10784973
Pair 0 11, 6 11:       7.16467900
Pair 0 11, 6 15:       7.43554346
Pair 0 11, 6 16:       7.25347508
Pair 0 11, 7 0:       0.41863572
Pair 0 11, 7 2:       0.44907665
Pair 0 11, 7 3:       0.44383319
Pair 0 11, 7 4:       0.40454822
Pair 0 11, 7 6:       0.44874468
Pair 0 11, 7 7:       0.47871532
Pair 0 11, 7 8:       0.39991572
Pair 0 11, 8 5:       6.52789601
Pair 0 11, 8 6:       6.43274117
Pair 0 11, 8 7:       6.35339462
Pair 0 11, 8 8:       6.30922522
Pair 0 11, 8 9:       6.16671288
Pair 0 11, 8 10:       6.32939330
Pair 0 11, 8 11:       6.24392739
Pair 0 11, 8 12:       6.38954315
Pair 0 11, 8 13:       6.10821790
Pair 0 11, 8 14:       6.20091724
Pair 0 11, 8 17:       6.09086579
Pair 0 11, 8 18:       5.95497135
Pair 0 11, 8 19:       5.95947657
Pair 0 11, 8 20:       6.04715000
Pair 0 11, 8 21:       5.98457929
Pair 0 11, 8 23:       6.05356332
Pair 0 11, 8 24:       6.12687397
Pair 0 11, 8 25:       6.06626400
Pair 0 11, 8 26:       6.26453171
Pair 0 11, 9 0:       0.60030643
Pair 0 11, 9 1:       0.60286161
Pair 0 11, 9 2:       0.61722668
Pair 0 11, 9 3:       0.62706171
Pair 0 11, 9 4:       0.61089301
Pair 0 12, 1 12:       1.64995887
Pair 0 12, 1 13:       0.83122754
Pair 0 12, 1 14:       0.73893490
Pair 0 12, 1 15:       1.26411825
Pair 0 12, 1 16:       2.57638094
Pair 0 12, 1 17:       2.19567665
Pair 0 12, 2 0:       8.35204504
Pair 0 12, 2 1:       8.24849314
Pair 0 12, 2 2:       8.17087524
Pair 0 12, 2 3:       8.15100279
Pair 0 12, 3 0:      -6.83074837
Pair 0 12, 3 1:      -7.08416443
Pair 0 12, 3 2:      -6.96037214
Pair 0 12, 3 3:      -6.78291834
Pair 0 12, 3 4:      -7.20846512
Pair 0 12, 3 5:      -6.84801583
Pair 0 12, 3 6:      -6.64663657
Pair 0 12, 3 7:      -6.82743924
Pair 0 12, 4 4:      -6.12610352
Pair 0 12, 5 1:       6.35108981
Pair 0 12, 5 2:       6.42573328
Pair 0 12, 5 3:       6.26664531
Pair 0 12, 5 5:       6.15376670
Pair 0 12, 5 10:       6.25718924
Pair 0 12, 5 12:       6.34711509
Pair 0 12, 6 9:       7.11056627
Pair 0 12, 6 11:       7.16741294
Pair 0 12, 6 15:       7.43963271
Pair 0 12, 6 16:       7.25896546
Pair 0 12, 7 0:       0.41805141
Pair 0 12, 7 2:       0.44954700
Pair 0 12, 7 3:       0.44471997
Pair 0 12, 7 4:       0.40572603
Pair 0 12, 7 6:       0.44965355
Pair 0 12, 7 7:       0.47933687
Pair 0 12, 7 8:       0.40094315
Pair 0 12, 8 5:       6.48213700
Pair 0 12, 8 6:       6.38633712
Pair 0 12, 8 7:       6.30880899
Pair 0 12, 8 8:       6.26904435
Pair 0 12, 8 9:       6.12736090
Pair 0 12, 8 10:       6.28521270
Pair 0 12, 8 11:       6.20126179
Pair 0 12, 8 12:       6.34621480
Pair 0 12, 8 13:       6.06779967
Pair 0 12, 8 14:       6.15889156
Pair 0 12, 8 17:       6.05076448
Pair 0 12, 8 18:       5.91845410
Pair 0 12, 8 19:       5.92135894
Pair 0 12, 8 20:       6.00748510
Pair 0 12, 8 21:       5.94809574
Pair 0 12, 8 23:       6.01393169
Pair 0 12, 8 24:       6.08547531
Pair 0 12, 8 25:       6.02769290
Pair 0 12, 8 26:       6.22099230
Pair 0 12, 9 0:       0.59730331
Pair 0 12, 9 1:       0.60046219
Pair 0 12, 9 2:       0.61525177
Pair 0 12, 9 3:       0.62480145
Pair 0 12, 9 4:       0.60776220
Pair 0 13, 1 12:       1.78489201
Pair 0 13, 1 13:       0.88122990
Pair 0 13, 1 14:       0.76300468
Pair 0 13, 1 15:       1.37385874
Pair 0 13, 1 16:       2.91361570
Pair 0 13, 1 17:       2.54977335
Pair 0 13, 2 0:       8.46922042
Pair 0 13, 2 1:       8.36116664
Pair 0 13, 2 2:       8.28331425
Pair 0 13, 2 3:       8.26049625
Pair 0 13, 3 0:      -6.93303108
Pair 0 13, 3 1:      -7.19019892
Pair 0 13, 3 2:      -7.06895735
Pair 0 13, 3 3:      -6.88653944
Pair 0 13, 3 4:      -7.32386237
Pair 0 13, 3 5:      -6.94815264
Pair 0 13, 3 6:      -6.74443324
Pair 0 13, 3 7:      -6.93022617
Pair 0 13, 4 4:      -6.14380869
Pair 0 13, 5 1:       6.39027623
Pair 0 13, 5 2:       6.46735253
Pair 0 13, 5 3:       6.30500256
Pair 0 13, 5 5:       6.19357728
Pair 0 13, 5 10:       6.30014568
Pair 0 13, 5 12:       6.38951220
Pair 0 13, 6 9:       7.15586978
Pair 0 13, 6 11:       7.20525361
Pair 0 13, 6 15:       7.48259654
Pair 0 13, 6 16:       7.29977036
Pair 0 13, 7 0:       0.42090723
Pair 0 13, 7 2:       0.45115204
Pair 0 13, 7 3:       0.44785378
Pair 0 13, 7 4:       0.40748082
Pair 0 13, 7 6:       0.45129515
Pair 0 13, 7 7:       0.48180230
Pair 0 13, 7 8:       0.40272916
Pair 0 13, 8 5:       6.53632038
Pair 0 13, 8 6:       6.43942084
Pair 0 13, 8 7:       6.35938107
Pair 0 13, 8 8:       6.31805221
Pair 0 13, 8 9:       6.17374514
Pair 0 13, 8 10:       6.33507249
Pair 0 13, 8 11:       6.24848389
Pair 0 13, 8 12:       6.39619057
Pair 0 13, 8 13:       6.11421482
Pair 0 13, 8 14:       6.20776865
Pair 0 13, 8 17:       6.09702014
Pair 0 13, 8 18:       5.96491380
Pair 0 13, 8 19:       5.96667138
Pair 0 13, 8 20:       6.05502648
Pair 0 13, 8 21:       5.99336278
Pair 0 13, 8 23:       6.06186987
Pair 0 13, 8 24:       6.13547658
Pair 0 13, 8 25:       6.07703835
Pair 0 13, 8 26:       6.27218014
Pair 0 13, 9 0:       0.60402463
Pair 0 13, 9 1:       0.60735816
Pair 0 13, 9 2:       0.62223697
Pair 0 13, 9 3:       0.63159289
Pair 0 13, 9 4:       0.61431008
Pair 0 15, 1 12:       1.31290054
Pair 0 15, 1 13:       0.75829649
Pair 0 15, 1 14:       0.52013078
Pair 0 15, 1 15:       0.73922190
Pair 0 15, 1 16:       1.54622496
Pair 0 15, 1 17:       1.15025635
Pair 0 15, 2 0:       8.43977760
Pair 0 15, 2 1:       8.33610105
Pair 0 15, 2 2:       8.25438288
Pair 0 15, 2 3:       8.24099766
Pair 0 15, 3 0:      -6.87444887
Pair 0 15, 3 1:      -7.13963388
Pair 0 15, 3 2:      -6.99704922
Pair 0 15, 3 3:      -6.81834260
Pair 0 15, 3 4:      -7.24771422
Pair 0 15, 3 5:      -6.89973594
Pair 0 15, 3 6:      -6.68731265
Pair 0 15, 3 7:      -6.86911467
Pair 0 15, 4 4:      -6.29008636
Pair 0 15, 5 1:       6.47087337
Pair 0 15, 5 2:       6.54597238
Pair 0 15, 5 3:       6.38389989
Pair 0 15, 5 5:       6.26069984
Pair 0 15, 5 10:       6.36506227
Pair 0 15, 5 12:       6.46038090
Pair 0 15, 6 9:       7.24097454
Pair 0 15, 6 11:       7.31250828
Pair 0 15, 6 15:       7.59140329
Pair 0 15, 6 16:       7.40277549
Pair 0 15, 7 0:       0.42485990
Pair 0 15, 7 2:       0.45907689
Pair 0 15, 7 3:       0.45142046
Pair 0 15, 7 4:       0.41247153
Pair 0 15, 7 6:       0.45884478
Pair 0 15, 7 7:       0.48900899
Pair 0 15, 7 8:       0.40741548
Pair 0 15, 8 5:       6.58515428
Pair 0 15, 8 6:       6.48587455
Pair 0 15, 8 7:       6.40868721
Pair 0 15, 8 8:       6.36946426
Pair 0 15, 8 9:       6.22487034
Pair 0 15, 8 10:       6.38509408
Pair 0 15, 8 11:       6.30131908
Pair 0 15, 8 12:       6.44924925
Pair 0 15, 8 13:       6.16216955
Pair 0 15, 8 14:       6.25366323
Pair 0 15, 8 17:       6.14450025
Pair 0 15, 8 18:       6.00481468
Pair 0 15, 8 19:       6.00999018
Pair 0 15, 8 20:       6.09655249
Pair 0 15, 8 21:       6.03814065
Pair 0 15, 8 23:       6.10261367
Pair 0 15, 8 24:       6.17408318
Pair 0 15, 8 25:       6.11445589
Pair 0 15, 8 26:       6.31484474
Pair 0 15, 9 0:       0.60495133
Pair 0 15, 9 1:       0.60770175
Pair 0 15, 9 2:       0.62297375
Pair 0 15, 9 3:       0.63356550
Pair 0 15, 9 4:       0.61638126
Pair 0 16, 1 12:       1.41699925
Pair 0 16, 1 13:       0.79511615
Pair 0 16, 1 14:       0.63678767
Pair 0 16, 1 15:       0.91517053
Pair 0 16, 1 16:       1.88708810
Pair 0 16, 1 17:       1.46867172
Pair 0 16, 2 0:       8.49854340
Pair 0 16, 2 1:       8.39975790
Pair 0 16, 2 2:       8.31467396
Pair 0 16, 2 3:       8.29971086
Pair 0 16, 3 0:      -6.90770021
Pair 0 16, 3 1:      -7.17348641
Pair 0 16, 3 2:      -7.02581723
Pair 0 16, 3 3:      -6.84963334
Pair 0 16, 3 4:      -7.28452464
Pair 0 16, 3 5:      -6.92805599
Pair 0 16, 3 6:      -6.71528574
Pair 0 16, 3 7:      -6.89472282
Pair 0 16, 4 4:      -6.29936315
Pair 0 16, 5 1:       6.47204883
Pair 0 16, 5 2:       6.54929803
Pair 0 16, 5 3:       6.38720143
Pair 0 16, 5 5:       6.25795287
Pair 0 16, 5 10:       6.36491071
Pair 0 16, 5 12:       6.45909132
Pair 0 16, 6 9:       7.20337923
Pair 0 16, 6 11:       7.27117374
Pair 0 16, 6 15:       7.54688363
Pair 0 16, 6 16:       7.35902942