Box 25: 0,1,7
Self 0 0:     138.26881056
Self 0 1:     246.40294719
Self 0 2:     240.85103271
Self 0 3:     247.64546712
Self 0 4:     240.74424268
Self 0 5:     246.83891616
Self 0 6:     241.22744850
Self 0 7:     248.19030521
Self 0 8:     160.37453793
Self 0 9:     161.32777786
Self 0 10:     172.10573671
Self 0 11:     165.08161852
Self 0 12:     160.74936148
Self 0 13:     152.86028838
Self 0 14:     162.03613132
Self 0 15:     159.89621564
Self 0 16:     154.08138287
Self 0 17:     161.56821650
Self 0 18:     160.83820107
Self 0 19:     151.97256502
Self 0 20:     157.92164447
Self 0 21:     150.52448461
Self 0 22:     145.49123534
Self 0 23:     155.17215037
Self 0 24:     148.10924325
Self 0 25:     142.48062993
Self 0 26:     148.21860289
Self 0 27:     154.47682300
Self 0 28:     143.66808354
Self 0 29:     149.79243488
Self 0 30:     151.17753758
Self 0 31:     150.68644193
Self 0 32:     155.58807667
Self 0 33:     154.82109083
Self 0 34:     153.47901762
Box 26: 0,1,8
Self 0 0:      -2.92671231
Self 0 1:      28.31405827
Self 0 2:     147.70321021
Self 0 3:      10.01622234
Self 0 4:       7.44936345
Self 0 5:       3.85065712
Self 0 6:       4.84329843
Self 0 7:      -1.29575378
Self 0 8:       0.34099259
Self 0 9:      -3.28323097
Self 1 0:     135.46944908
Self 1 1:     242.86679847
Self 1 2:     237.79629534
Self 1 3:     244.61898912
Self 1 4:     237.66414718
Self 1 5:     243.43016348
Self 1 6:     238.38302077
Self 1 7:     245.34156637
Self 1 8:     157.85122460
Self 1 9:     158.81788637
Self 1 10:     169.67186959
Self 1 11:     162.73195021
Self 1 12:     158.10803749
Self 1 13:     150.19651252
Self 1 14:     159.11688345
Self 1 15:     157.49313604
Self 1 16:     151.67794834
Self 1 17:     159.14165049
Self 1 18:     157.97703610
Self 1 19:     149.39163666
Self 1 20:     155.36216500
Self 1 21:     147.93466029
Self 1 22:     142.86496500
Self 1 23:     152.45280321
Self 1 24:     145.08273127
Self 1 25:     139.78675913
Self 1 26:     145.54069190
Self 1 27:     151.39195090
Self 1 28:     140.56814910
Self 1 29:     146.68041175
Self 1 30:     148.54972487
Self 1 31:     148.10411237
Self 1 32:     152.83202720
Self 1 33:     152.31248248
Self 1 34:     150.90609791
Pair 0 0, 1 0:       2.79936148
Pair 0 0, 1 13:       2.66377586
Pair 0 0, 1 16:       2.40343453
Pair 0 0, 1 19:       2.58092836
Pair 0 0, 1 20:       2.55947948
Pair 0 0, 1 21:       2.58982432
Pair 0 0, 1 22:       2.62627034
Pair 0 0, 1 23:       2.71934715
Pair 0 0, 1 24:       3.02651198
Pair 0 0, 1 25:       2.69387080
Pair 0 0, 1 26:       2.67791099
Pair 0 0, 1 27:       3.08487211
Pair 0 0, 1 28:       3.09993444
Pair 0 0, 1 29:       3.11202313
Pair 0 0, 1 30:       2.62781271
Pair 0 0, 1 31:       2.58232956
Pair 0 0, 1 32:       2.75604947
Pair 0 0, 1 33:       2.50860836
Pair 0 0, 1 34:       2.57291971
Pair 0 3, 1 0:      -0.23433395
Pair 0 3, 1 13:       1.36958379
Pair 0 3, 1 16:       1.31220464
Pair 0 3, 1 19:       1.04573004
Pair 0 3, 1 20:       1.00791940
Pair 0 3, 1 21:       0.63867029
Pair 0 3, 1 22:       0.46426748
Pair 0 3, 1 23:       0.57187249
Pair 0 3, 1 24:      -2.28817888
Pair 0 3, 1 25:       0.28467898
Pair 0 3, 1 26:       0.23001528
Pair 0 3, 1 27:      -1.44833446
Pair 0 3, 1 28:      -1.43140836
Pair 0 3, 1 29:      -1.36332018
Pair 0 3, 1 30:       0.89619713
Pair 0 3, 1 31:       0.90757974
Pair 0 3, 1 32:       1.10102557
Pair 0 3, 1 33:       1.15934721
Pair 0 3, 1 34:       0.95718216
Pair 0 4, 1 0:       6.89607687
Pair 0 4, 1 13:       6.40236790
Pair 0 4, 1 16:       5.48044709
Pair 0 4, 1 19:       6.01520639
Pair 0 4, 1 20:       6.00315766
Pair 0 4, 1 21:       6.16371350
Pair 0 4, 1 22:       6.50043750
Pair 0 4, 1 23:       7.03170917
Pair 0 4, 1 24:       8.30761748
Pair 0 4, 1 25:       6.46899532
Pair 0 4, 1 26:       6.41966315
Pair 0 4, 1 27:       8.72396338
Pair 0 4, 1 28:       9.43145849
Pair 0 4, 1 29:       8.24164483
Pair 0 4, 1 30:       5.69600485
Pair 0 4, 1 31:       5.47570416
Pair 0 4, 1 32:       5.62677070
Pair 0 4, 1 33:       5.41677880
Pair 0 4, 1 34:       5.74269158
Pair 0 5, 1 0:       3.82734623
Pair 0 5, 1 13:       4.42462603
Pair 0 5, 1 16:       3.41226104
Pair 0 5, 1 19:       3.57721772
Pair 0 5, 1 20:       3.36833514
Pair 0 5, 1 21:       3.35205017
Pair 0 5, 1 22:       3.62966804
Pair 0 5, 1 23:       4.00315090
Pair 0 5, 1 24:       3.77739385
Pair 0 5, 1 25:       3.54368913
Pair 0 5, 1 26:       3.32255282
Pair 0 5, 1 27:       5.22731890
Pair 0 5, 1 28:       5.05104986
Pair 0 5, 1 29:       4.72993867
Pair 0 5, 1 30:       3.06745106
Pair 0 5, 1 31:       2.88312533
Pair 0 5, 1 32:       2.89964224
Pair 0 5, 1 33:       2.94589685
Pair 0 5, 1 34:       3.12495308
Pair 0 6, 1 0:       1.82492411
Pair 0 6, 1 13:       1.81973938
Pair 0 6, 1 16:       1.61000343
Pair 0 6, 1 19:       1.70956533
Pair 0 6, 1 20:       1.67093718
Pair 0 6, 1 21:       1.68064948
Pair 0 6, 1 22:       1.70973966
Pair 0 6, 1 23:       1.77375960
Pair 0 6, 1 24:       1.87883451
Pair 0 6, 1 25:       1.77009927
Pair 0 6, 1 26:       1.73573899
Pair 0 6, 1 27:       1.94856343
Pair 0 6, 1 28:       1.93682194
Pair 0 6, 1 29:       1.94967544
Pair 0 6, 1 30:       1.70705220
Pair 0 6, 1 31:       1.66510771
Pair 0 6, 1 32:       1.75947722
Pair 0 6, 1 33:       1.58873017
Pair 0 6, 1 34:       1.64309147
Pair 0 7, 1 0:       2.59425860
Pair 0 7, 1 13:       2.46357326
Pair 0 7, 1 16:       2.21354327
Pair 0 7, 1 19:       2.38075549
Pair 0 7, 1 20:       2.35078048
Pair 0 7, 1 21:       2.37343314
Pair 0 7, 1 22:       2.41703460
Pair 0 7, 1 23:       2.49489052
Pair 0 7, 1 24:       2.78588387
Pair 0 7, 1 25:       2.49185499
Pair 0 7, 1 26:       2.46482636
Pair 0 7, 1 27:       2.84410197
Pair 0 7, 1 28:       2.86265784
Pair 0 7, 1 29:       2.88290134
Pair 0 7, 1 30:       2.40873499
Pair 0 7, 1 31:       2.36284928
Pair 0 7, 1 32:       2.50570161
Pair 0 7, 1 33:       2.28271584
Pair 0 7, 1 34:       2.34884719
Pair 0 8, 1 0:       1.78918448
Pair 0 8, 1 13:       1.99776423
Pair 0 8, 1 16:       2.00566083
Pair 0 8, 1 19:       2.05924953
Pair 0 8, 1 20:       2.13443626
Pair 0 8, 1 21:       2.10058251
Pair 0 8, 1 22:       1.92191795
Pair 0 8, 1 23:       1.99400794
Pair 0 8, 1 24:       1.56865139
Pair 0 8, 1 25:       1.96576043
Pair 0 8, 1 26:       2.06138955
Pair 0 8, 1 27:       1.36759938
Pair 0 8, 1 28:       1.33987414
Pair 0 8, 1 29:       1.36394922
Pair 0 8, 1 30:       2.37014280
Pair 0 8, 1 31:       2.41717937
Pair 0 8, 1 32:       2.81661345
Pair 0 8, 1 33:       2.35913894
Pair 0 8, 1 34:       2.26723609
Pair 0 9, 1 0:       3.48853050
Pair 0 9, 1 13:       3.89959516
Pair 0 9, 1 16:       3.22456998
Pair 0 9, 1 19:       3.33622813
Pair 0 9, 1 20:       3.20992153
Pair 0 9, 1 21:       3.18735066
Pair 0 9, 1 22:       3.41848794
Pair 0 9, 1 23:       3.68429358
Pair 0 9, 1 24:       3.58972927
Pair 0 9, 1 25:       3.24167455
Pair 0 9, 1 26:       3.12132315
Pair 0 9, 1 27:       4.57996620
Pair 0 9, 1 28:       4.48956672
Pair 0 9, 1 29:       4.28938297
Pair 0 9, 1 30:       2.82973780
Pair 0 9, 1 31:       2.68519780
Pair 0 9, 1 32:       2.47166697
Pair 0 9, 1 33:       2.88600599
Pair 0 9, 1 34:       3.03468871
Box 27: 0,1,9
Self 0 0:      -0.12735083
Self 0 1:      30.64964073
Self 0 2:     148.57166206
Self 0 3:       9.78188839
Self 0 4:      14.34544031
Self 0 5:       7.67800335
Self 0 6:       6.66822254
Self 0 7:       1.29850482
Self 0 8:       2.13017708
Self 0 9:       0.20529953
Box 43: 0,2,8
Self 0 0:      -0.12735083
Self 0 1:      30.64964073
Self 0 2:     148.57166206
Self 0 3:       9.78188839
Self 0 4:      14.34544031
Self 0 5:       7.67800335
Self 0 6:       6.66822254
Self 0 7:       1.29850482
Self 0 8:       2.13017708
Self 0 9:       0.20529953
Box 44: 0,2,9
Self 0 0:      -0.12735083
Self 0 1:      30.64964073
Self 0 2:     148.57166206
Self 0 3:       9.78188839
Self 0 4:      14.34544031
Self 0 5:       7.67800335
Self 0 6:       6.66822254
Self 0 7:       1.29850482
Self 0 8:       2.13017708
Self 0 9:       0.20529953
Box 138: 0,8,1
Self 0 0:      10.80480739
Self 0 1:      23.44400854
Self 0 2:      14.75667733
Self 0 3:      14.59197850
Self 0 4:      13.37136483
Self 0 5:      20.56739726
Self 0 6:      16.85581056
Self 0 7:      19.64218687
Self 0 8:      20.99542503
Self 0 9:      22.89733311
Self 0 10:      22.50870934
Self 0 11:      20.48097695
Self 0 12:      25.49206087
Self 0 13:      21.01062066
Self 0 14:      21.02030077
Self 0 15:      20.29242977
Self 0 16:      17.66038656
Self 0 17:      17.38118069
Self 0 18:      19.58273977
Box 139: 0,8,2
Self 0 0:      10.80480739
Self 0 1:      23.44400854
Self 0 2:      14.75667733
Self 0 3:      14.59197850
Self 0 4:      13.37136483
Self 0 5:      20.56739726
Self 0 6:      16.85581056
Self 0 7:      19.64218687
Self 0 8:      20.99542503
Self 0 9:      22.89733311
Self 0 10:      22.50870934
Self 0 11:      20.48097695
Self 0 12:      25.49206087
Self 0 13:      21.01062066
Self 0 14:      21.02030077
Self 0 15:      20.29242977
Self 0 16:      17.66038656
Self 0 17:      17.38118069
Self 0 18:      19.58273977
Box 150: 0,8,13
Self 0 0:    -201.60448049
Self 0 1:     479.93058008
Self 0 2:    1036.50835128
Self 0 3:     -93.40569663
Self 0 4:    -137.16323396
Self 0 5:     265.13048311
Self 0 6:    1130.95218370
Self 0 7:      22.16350724
Self 0 8:    -197.00512255
Box 151: 0,8,14
Self 0 0:    -201.60448049
Self 0 1:     479.93058008
Self 0 2:    1036.50835128
Self 0 3:     -93.40569663
Self 0 4:    -137.16323396
Self 0 5:     265.13048311
Self 0 6:    1130.95218370
Self 0 7:      22.16350724
Self 0 8:    -197.00512255
Box 155: 0,9,1
Self 0 0:      10.80480739
Self 0 1:      23.44400854
Self 0 2:      14.75667733
Self 0 3:      14.59197850
Self 0 4:      13.37136483
Self 0 5:      20.56739726
Self 0 6:      16.85581056
Self 0 7:      19.64218687
Self 0 8:      20.99542503
Self 0 9:      22.89733311
Self 0 10:      22.50870934
Self 0 11:      20.48097695
Self 0 12:      25.49206087
Self 0 13:      21.01062066
Self 0 14:      21.02030077
Self 0 15:      20.29242977
Self 0 16:      17.66038656
Self 0 17:      17.38118069
Self 0 18:      19.58273977
Box 156: 0,9,2
Self 0 0:      10.80480739
Self 0 1:      23.44400854
Self 0 2:      14.75667733
Self 0 3:      14.59197850
Self 0 4:      13.37136483
Self 0 5:      20.56739726
Self 0 6:      16.85581056
Self 0 7:      19.64218687
Self 0 8:      20.99542503
Self 0 9:      22.89733311
Self 0 10:      22.50870934
Self 0 11:      20.48097695
Self 0 12:      25.49206087
Self 0 13:      21.01062066
Self 0 14:      21.02030077
Self 0 15:      20.29242977
Self 0 16:      17.66038656
Self 0 17:      17.38118069
Self 0 18:      19.58273977
Box 167: 0,9,13
Self 0 0:    -201.60448049
Self 0 1:     479.93058008
Self 0 2:    1036.50835128
Self 0 3:     -93.40569663
Self 0 4:    -137.16323396
Self 0 5:     265.13048311
Self 0 6:    1130.95218370
Self 0 7:      22.16350724
Self 0 8:    -197.00512255
Box 168: 0,9,14
Self 0 0:    -179.72942264
Self 0 1:     504.73724199
Self 0 2:    1062.49593234
Self 0 3:     -68.23459669
Self 0 4:    -112.37228933
Self 0 5:     297.34596326
Self 0 6:    1151.46453033
Self 0 7:      42.98804794
Self 0 8:    -175.16527601
Self 1 0:     147.84636480
Self 1 1:     165.79122355
Self 1 2:     152.63465578
Self 1 3:     158.68314902
Self 1 4:     158.75431717
Self 1 5:     158.02172734
Self 1 6:     853.40207560
Self 1 7:    1125.42603600
Self 1 8:     168.83257389
Self 1 9:     136.38875368
Self 1 10:     149.13967691
Self 1 11:     139.20560196
Self 1 12:     138.99688632
Self 1 13:     134.51669920
Self 1 14:     157.98182203
Self 1 15:     155.55571378
Self 1 16:     172.19090515
Self 1 17:     194.23316249
Self 1 18:     158.19246245
Self 1 19:     163.33387790
Self 1 20:     165.51670390
Self 1 21:     163.14888260
Self 1 22:     159.38184186
Self 1 23:     160.48299756
Self 1 24:     162.62359438
Self 1 25:     160.65587919
Self 1 26:     158.52402178
Self 1 27:     264.87176686
Pair 0 0, 1 0:     -21.87505785
Pair 0 0, 1 2:     -23.39421420
Pair 0 0, 1 9:     -22.96560657
Pair 0 0, 1 10:     -21.95485353
Pair 0 0, 1 11:     -22.32755070
Pair 0 0, 1 12:     -21.22506932
Pair 0 0, 1 13:     -21.88816790
Pair 0 8, 1 0:     -21.83984654
Pair 0 8, 1 2:     -23.30240105
Pair 0 8, 1 9:     -22.89430747
Pair 0 8, 1 10:     -21.91885325
Pair 0 8, 1 11:     -22.31974082
Pair 0 8, 1 12:     -21.20594357
Pair 0 8, 1 13:     -21.83905515
Box 184: 0,10,13
Self 0 0:    -211.20417514
Self 0 1:    -211.54348706
Self 0 2:    -211.54348706
Self 0 3:    -195.12058085
Self 0 4:    -195.12058085
Self 0 5:    -205.42183505
Box 185: 0,10,14
Self 0 0:     160.58442228
Self 0 1:     175.63088417
Self 0 2:     165.84987583
Self 0 3:     169.21172504
Self 0 4:     168.84886695
Self 0 5:     170.71612449
Self 0 6:     877.15712256
Self 0 7:    1141.72088913
Self 0 8:     185.11055080
Self 0 9:     154.19817929
Self 0 10:     162.42778875
Self 0 11:     154.95524340
Self 0 12:     153.02875502
Self 0 13:     152.75794579
Self 0 14:     169.89891267
Self 0 15:     169.04474492
Self 0 16:     181.71654370
Self 0 17:     209.46608581
Self 0 18:     169.38512268
Self 0 19:     170.84780465
Self 0 20:     173.99670426
Self 0 21:     172.49263111
Self 0 22:     168.71057553
Self 0 23:     168.97210105
Self 0 24:     171.86703180
Self 0 25:     169.92934169
Self 0 26:     165.41939088
Self 0 27:     278.10891937
Self 1 0:    -171.07476066
Self 1 1:    -156.01332634
Self 1 2:    -156.01332634
Self 1 3:    -151.52942140
Self 1 4:    -151.52942140
Self 1 5:    -165.82958542
Pair 0 0, 1 0:     -34.61311533
Pair 0 0, 1 1:     -40.89178770
Pair 0 0, 1 2:     -40.89178770
Pair 0 0, 1 3:     -35.85873770
Pair 0 0, 1 4:     -35.85873770
Pair 0 0, 1 5:     -34.08058252
Pair 0 2, 1 0:     -36.60943425
Pair 0 2, 1 1:     -38.92089254
Pair 0 2, 1 2:     -38.92089254
Pair 0 2, 1 3:     -38.16501412
Pair 0 2, 1 4:     -38.16501412
Pair 0 2, 1 5:     -36.12342321
Pair 0 3, 1 0:     -32.80274645
Pair 0 3, 1 1:     -35.16177345
Pair 0 3, 1 2:     -35.16177345
Pair 0 3, 1 3:     -33.31686896
Pair 0 3, 1 4:     -33.31686896
Pair 0 3, 1 5:     -32.31309642
Pair 0 4, 1 0:     -34.51568787
Pair 0 4, 1 1:     -35.61688990
Pair 0 4, 1 2:     -35.61688990
Pair 0 4, 1 3:     -34.14023099
Pair 0 4, 1 4:     -34.14023099
Pair 0 4, 1 5:     -33.98998169
Pair 0 5, 1 0:     -34.84452864
Pair 0 5, 1 1:     -39.61840021
Pair 0 5, 1 2:     -39.61840021
Pair 0 5, 1 3:     -35.87000689
Pair 0 5, 1 4:     -35.87000689
Pair 0 5, 1 5:     -34.28222781
Pair 0 9, 1 0:     -40.77503218
Pair 0 9, 1 1:     -49.58970735
Pair 0 9, 1 2:     -49.58970735
Pair 0 9, 1 3:     -44.02387961
Pair 0 9, 1 4:     -44.02387961
Pair 0 9, 1 5:     -40.22098366
Pair 0 10, 1 0:     -35.24296537
Pair 0 10, 1 1:     -42.09591184
Pair 0 10, 1 2:     -42.09591184
Pair 0 10, 1 3:     -36.60553754
Pair 0 10, 1 4:     -36.60553754
Pair 0 10, 1 5:     -34.69384504
Pair 0 11, 1 0:     -38.07719214
Pair 0 11, 1 1:     -52.72117413
Pair 0 11, 1 2:     -52.72117413
Pair 0 11, 1 3:     -38.98097671
Pair 0 11, 1 4:     -38.98097671
Pair 0 11, 1 5:     -37.38666843
Pair 0 12, 1 0:     -35.25693802
Pair 0 12, 1 1:     -46.01638486
Pair 0 12, 1 2:     -46.01638486
Pair 0 12, 1 3:     -36.93457915
Pair 0 12, 1 4:     -36.93457915
Pair 0 12, 1 5:     -34.70540318
Pair 0 13, 1 0:     -40.12941449
Pair 0 13, 1 1:     -55.53016072
Pair 0 13, 1 2:     -55.53016072
Pair 0 13, 1 3:     -43.59115945
Pair 0 13, 1 4:     -43.59115945
Pair 0 13, 1 5:     -39.59224963
Pair 0 14, 1 0:     -34.30151791
Pair 0 14, 1 1:     -41.09455853
Pair 0 14, 1 2:     -41.09455853
Pair 0 14, 1 3:     -34.16666879
Pair 0 14, 1 4:     -34.16666879
Pair 0 14, 1 5:     -33.66484262
Pair 0 15, 1 0:     -37.21586137
Pair 0 15, 1 1:     -45.55768846
Pair 0 15, 1 2:     -45.55768846
Pair 0 15, 1 3:     -36.18380311
Pair 0 15, 1 4:     -36.18380311
Pair 0 15, 1 5:     -36.41987570
Pair 0 18, 1 0:     -33.77806630
Pair 0 18, 1 1:     -38.90263274
Pair 0 18, 1 2:     -38.90263274
Pair 0 18, 1 3:     -33.13959733
Pair 0 18, 1 4:     -33.13959733
Pair 0 18, 1 5:     -33.10828364
Pair 0 19, 1 0:     -33.21539855
Pair 0 19, 1 1:     -34.65833684
Pair 0 19, 1 2:     -34.65833684
Pair 0 19, 1 3:     -30.80504336
Pair 0 19, 1 4:     -30.80504336
Pair 0 19, 1 5:     -32.50682417
Pair 0 21, 1 0:     -34.13010407
Pair 0 21, 1 1:     -37.13963475
Pair 0 21, 1 2:     -37.13963475
Pair 0 21, 1 3:     -31.70099855
Pair 0 21, 1 4:     -31.70099855
Pair 0 21, 1 5:     -33.35138136
Pair 0 22, 1 0:     -32.53535753
Pair 0 22, 1 1:     -34.97210982
Pair 0 22, 1 2:     -34.97210982
Pair 0 22, 1 3:     -31.54278126
Pair 0 22, 1 4:     -31.54278126
Pair 0 22, 1 5:     -31.91695808
Pair 0 23, 1 0:     -34.23407936
Pair 0 23, 1 1:     -35.38260723
Pair 0 23, 1 2:     -35.38260723
Pair 0 23, 1 3:     -32.20477878
Pair 0 23, 1 4:     -32.20477878
Pair 0 23, 1 5:     -33.54411003
Pair 0 24, 1 0:     -34.66758170
Pair 0 24, 1 1:     -37.36562300
Pair 0 24, 1 2:     -37.36562300
Pair 0 24, 1 3:     -31.84894138
Pair 0 24, 1 4:     -31.84894138
Pair 0 24, 1 5:     -33.83441261
Pair 0 25, 1 0:     -35.60900365
Pair 0 25, 1 1:     -38.39279361
Pair 0 25, 1 2:     -38.39279361
Pair 0 25, 1 3:     -31.74848462
Pair 0 25, 1 4:     -31.74848462
Pair 0 25, 1 5:     -34.69461937
Pair 0 26, 1 0:     -35.96512213
Pair 0 26, 1 1:     -36.72662036
Pair 0 26, 1 2:     -36.72662036
Pair 0 26, 1 3:     -31.92415682
Pair 0 26, 1 4:     -31.92415682
Pair 0 26, 1 5:     -35.07518124
Box 673: 3,6,9
Self 0 0:    -130.09832781
Self 0 1:    -109.98814212
Self 0 2:    -109.98814212
Self 0 3:     -86.68902719
Self 0 4:     -86.68902719
Self 0 5:    -119.38943940
Box 674: 3,6,10
Self 0 0:    -130.09832781
Self 0 1:    -109.98814212
Self 0 2:    -109.98814212
Self 0 3:     -86.68902719
Self 0 4:     -86.68902719
Self 0 5:    -119.38943940
Box 689: 3,7,8
Self 0 0:       0.98223112
Self 0 1:       1.16554359
Self 0 2:      -2.52028753
Self 0 3:       2.21416850
Self 0 4:       4.65889136
Self 0 5:      10.86150459
Self 0 6:       7.04967491
Self 0 7:       4.72503827
Self 0 8:       0.00085075
Self 0 9:      -0.07709651
Self 0 10:       1.81242587
Self 0 11:       2.82601086
Self 0 12:       1.16921299
Self 0 13:       0.51184086
Self 0 14:       9.24331629
Self 0 15:       8.20560017
Self 0 16:       5.69394216
Self 0 17:      -6.39879300
Self 0 18:       1.13186493
Self 1 0:      34.39502433
Self 1 1:   37688.31687478
Self 1 2:    5742.38901982
Self 1 3:  488412.54963444
Self 1 4:    2206.19580910
Self 1 5:   46956.28298811
Self 1 6:     831.44923726
Self 1 7:   55849.09391361
Self 1 8:      44.66932545
Self 1 9:      37.63499747
Self 1 10:   24288.27974649
Self 1 11:      79.02266239
Self 1 12:   21557.55266807
Self 1 13:     422.74467029
Self 1 14:    1660.58728153
Self 1 15:  286700.71147844
Self 1 16:    1702.99789268
Self 1 17:   57671.29021345
Self 1 18:     312.48748840
Self 1 19:     130.91737239
Self 1 20:     131.26337413
Self 1 21:      36.61885870
Self 1 22:      35.96016431
Self 1 23:     227.70313579
Self 1 24:    6364.46872162
Self 1 25:      50.25826278
Self 1 26:      44.83626938
Self 1 27:    1782.27182719
Self 1 28:   52983.26227516
Self 1 29:    3025.23119820
Self 1 30:     235.40814572
Self 1 31:     323.92978434
Self 1 32:   16493.76404490
Self 1 33:      25.82715278
Self 1 34:      33.28790480
Pair 0 0, 1 0:       2.79219083
Pair 0 0, 1 8:       2.50785922
Pair 0 0, 1 9:       2.54504514
Pair 0 0, 1 21:       2.54521136
Pair 0 0, 1 22:       2.43939700
Pair 0 0, 1 26:       2.87300100
Pair 0 0, 1 33:       2.66560413
Pair 0 0, 1 34:       2.64242378
Pair 0 1, 1 0:       4.95083648
Pair 0 1, 1 8:       4.99789158
Pair 0 1, 1 9:       4.75987206
Pair 0 1, 1 21:       4.93692657
Pair 0 1, 1 22:       4.79881058
Pair 0 1, 1 26:       5.15383192
Pair 0 1, 1 33:       5.46064656
Pair 0 1, 1 34:       5.52007853
Pair 0 2, 1 0:       4.41729952
Pair 0 2, 1 8:       4.95748077
Pair 0 2, 1 9:       4.90539704
Pair 0 2, 1 21:       4.73669046
Pair 0 2, 1 22:       4.59919279
Pair 0 2, 1 26:       4.68332079
Pair 0 2, 1 33:       5.58065997
Pair 0 2, 1 34:       5.37474937
Pair 0 3, 1 0:       2.87760221
Pair 0 3, 1 8:       3.27085245
Pair 0 3, 1 9:       3.40652608
Pair 0 3, 1 21:       3.12978551
Pair 0 3, 1 22:       3.10304665
Pair 0 3, 1 26:       2.99963753
Pair 0 3, 1 33:       3.41351395
Pair 0 3, 1 34:       3.27423091
Pair 0 4, 1 0:       2.28599546
Pair 0 4, 1 8:       2.33671743
Pair 0 4, 1 9:       2.37485270
Pair 0 4, 1 21:       2.35349089
Pair 0 4, 1 22:       2.39815485
Pair 0 4, 1 26:       2.29399050
Pair 0 4, 1 33:       2.22737687
Pair 0 4, 1 34:       2.28769749
Pair 0 5, 1 0:       3.69450219
Pair 0 5, 1 8:       3.20509413
Pair 0 5, 1 9:       3.07149370
Pair 0 5, 1 21:       3.36952078
Pair 0 5, 1 22:       3.35361812
Pair 0 5, 1 26:       3.71024496
Pair 0 5, 1 33:       3.09796018
Pair 0 5, 1 34:       3.37675816
Pair 0 6, 1 0:       2.59937860
Pair 0 6, 1 8:       2.33446147
Pair 0 6, 1 9:       2.27367942
Pair 0 6, 1 21:       2.45554346
Pair 0 6, 1 22:       2.50465023
Pair 0 6, 1 26:       2.56978076
Pair 0 6, 1 33:       2.14443196
Pair 0 6, 1 34:       2.35171697
Pair 0 7, 1 0:       4.57334893
Pair 0 7, 1 8:       4.39127485
Pair 0 7, 1 9:       4.31010001
Pair 0 7, 1 21:       4.44882754
Pair 0 7, 1 22:       4.34282694
Pair 0 7, 1 26:       4.73472116
Pair 0 7, 1 33:       4.63677889
Pair 0 7, 1 34:       4.71505052
Pair 0 8, 1 0:       3.46429220
Pair 0 8, 1 8:       3.07026878
Pair 0 8, 1 9:       2.96858038
Pair 0 8, 1 21:       3.18356112
Pair 0 8, 1 22:       3.14553271
Pair 0 8, 1 26:       3.49818179
Pair 0 8, 1 33:       3.14991194
Pair 0 8, 1 34:       3.26431177
Pair 0 9, 1 0:       2.81144721
Pair 0 9, 1 8:       2.43655543
Pair 0 9, 1 9:       2.39585652
Pair 0 9, 1 21:       2.52241357
Pair 0 9, 1 22:       2.46438215
Pair 0 9, 1 26:       2.84272983
Pair 0 9, 1 33:       2.52785754
Pair 0 9, 1 34:       2.58132190
Pair 0 10, 1 0:       2.86487656
Pair 0 10, 1 8:       2.66619670
Pair 0 10, 1 9:       2.74437092
Pair 0 10, 1 21:       2.65961634
Pair 0 10, 1 22:       2.52706631
Pair 0 10, 1 26:       2.97855409
Pair 0 10, 1 33:       2.87858899
Pair 0 10, 1 34:       2.80138403
Pair 0 11, 1 0:       4.57914080
Pair 0 11, 1 8:       4.71235542
Pair 0 11, 1 9:       4.78034319
Pair 0 11, 1 21:       4.60227113
Pair 0 11, 1 22:       4.40624462
Pair 0 11, 1 26:       4.84812554
Pair 0 11, 1 33:       5.14833973
Pair 0 11, 1 34:       5.03780489
Pair 0 12, 1 0:       3.53522576
Pair 0 12, 1 8:       3.62106860
Pair 0 12, 1 9:       3.79913937
Pair 0 12, 1 21:       3.47852140
Pair 0 12, 1 22:       3.27088830
Pair 0 12, 1 26:       3.76250920
Pair 0 12, 1 33:       4.01010329
Pair 0 12, 1 34:       3.79722459
Pair 0 13, 1 0:       4.45008405
Pair 0 13, 1 8:       4.48603121
Pair 0 13, 1 9:       4.43985687
Pair 0 13, 1 21:       4.46970125
Pair 0 13, 1 22:       4.37318250
Pair 0 13, 1 26:       4.62724074
Pair 0 13, 1 33:       4.82203571
Pair 0 13, 1 34:       4.80553566
Pair 0 14, 1 0:       4.56253651
Pair 0 14, 1 8:       4.58221149
Pair 0 14, 1 9:       4.61104369
Pair 0 14, 1 21:       4.52439812
Pair 0 14, 1 22:       4.32899824
Pair 0 14, 1 26:       4.81625399
Pair 0 14, 1 33:       5.00290795
Pair 0 14, 1 34:       4.93040969
Pair 0 15, 1 0:       3.98749848
Pair 0 15, 1 8:       4.22674259
Pair 0 15, 1 9:       4.33661322
Pair 0 15, 1 21:       4.07943750
Pair 0 15, 1 22:       3.85686966
Pair 0 15, 1 26:       4.26523948
Pair 0 15, 1 33:       4.66819063
Pair 0 15, 1 34:       4.48241942
Pair 0 16, 1 0:       3.62161216
Pair 0 16, 1 8:       4.02613035
Pair 0 16, 1 9:       4.15085069
Pair 0 16, 1 21:       3.83973569
Pair 0 16, 1 22:       3.64345845
Pair 0 16, 1 26:       3.88879956
Pair 0 16, 1 33:       4.44551451
Pair 0 16, 1 34:       4.22368178
Pair 0 17, 1 0:       3.85821068
Pair 0 17, 1 8:       4.03842122
Pair 0 17, 1 9:       4.00546412
Pair 0 17, 1 21:       3.98464521
Pair 0 17, 1 22:       3.93321635
Pair 0 17, 1 26:       3.99282716
Pair 0 17, 1 33:       4.28955356
Pair 0 17, 1 34:       4.24431886
Pair 0 18, 1 0:       3.63532229
Pair 0 18, 1 8:       4.03302220
Pair 0 18, 1 9:       4.09996824
Pair 0 18, 1 21:       3.87418845
Pair 0 18, 1 22:       3.73494736
Pair 0 18, 1 26:       3.85710623
Pair 0 18, 1 33:       4.38132646
Pair 0 18, 1 34:       4.21700885
Box 690: 3,7,9
Self 0 0:      68.64845665
Self 0 1:   37721.76763181
Self 0 2:    5776.08443803
Self 0 3:  488433.33564422
Self 0 4:    2239.68097443
Self 0 5:   46989.95949523
Self 0 6:     798.12184734
Self 0 7:   43980.00042744
Self 0 8:      86.00828873
Self 0 9:      85.60751194
Self 0 10:     164.81920511
Self 0 11:      78.79751086
Self 0 12:     737.52204889
Self 0 13:     388.61878110
Self 0 14:    1621.09298751
Self 0 15:      78.63469638
Self 0 16:      72.79250038
Self 0 17:      81.37436399
Self 0 18:     257.74876410
Self 0 19:      77.11827058
Self 0 20:      83.26471050
Self 0 21:      80.13595579
Self 0 22:      76.01171036
Self 0 23:     102.92764878
Self 0 24:    6399.24387948
Self 0 25:      84.77708670
Self 0 26:      83.28762438
Self 0 27:    1819.62200900
Self 0 28:   53017.23632789
Self 0 29:    3059.76588477
Self 0 30:     275.56262163
Self 0 31:     368.32786052
Self 0 32:   16536.34107380
Self 0 33:      77.86541781
Self 0 34:      80.95550593
Self 1 0:     -94.64718337
Self 1 1:     -76.22532795
Self 1 2:     -76.22532795
Self 1 3:     -52.32994455
Self 1 4:     -52.32994455
Self 1 5:     -85.96327820
Self 2 0:       8.22637745
Self 2 1:      37.86345402
Self 2 2:       9.29025744
Self 2 3:      33.82887582
Self 3 0:     -27.68421500
Self 3 1:  309741.76920048
Self 3 2:  192593.36349651
Self 3 3:      -4.56383430
Self 3 4:       4.56788905
Self 3 5:   20095.85089134
Self 3 6:   19825.58216707
Self 3 7: 10000000000000000000000000000000000000000000000000000000000000000000000000000000000000000000000000000.00000000
Self 3 8: 10000000000000000000000000000000000000000000000000000000000000000000000000000000000000000000000000000.00000000
Pair 0 0, 1 0:     -32.22459431
Pair 0 0, 1 1:     -43.13636815
Pair 0 0, 1 2:     -43.13636815
Pair 0 0, 1 5:     -29.83954445
Pair 0 0, 2 0:       0.56828318
Pair 0 0, 2 2:       0.82174199
Pair 0 0, 3 0:       1.15505402
Pair 0 8, 1 0:     -46.99598908
Pair 0 8, 1 1:      26.71650072
Pair 0 8, 1 2:      26.71650072
Pair 0 8, 1 5:     -42.69718083
Pair 0 8, 2 0:       7.45294244
Pair 0 8, 2 2:       0.85038606
Pair 0 8, 3 0:       1.18205723
Pair 0 9, 1 0:     -55.48611936
Pair 0 9, 1 1:      20.24644413
Pair 0 9, 1 2:      20.24644413
Pair 0 9, 1 5:     -51.45761287
Pair 0 9, 2 0:       9.10741206
Pair 0 9, 2 2:       2.85804998
Pair 0 9, 3 0:       1.22073531
Pair 0 11, 1 0:     -58.01826993
Pair 0 11, 1 1:     967.90475772
Pair 0 11, 1 2:     967.90475772
Pair 0 11, 1 5:     -56.89397184
Pair 0 11, 2 0:      58.31078566
Pair 0 11, 2 2:      19.25528468
Pair 0 11, 3 0:       1.20751507
Pair 0 15, 1 0:     -42.53672803
Pair 0 15, 1 1:     -31.23126167
Pair 0 15, 1 2:     -31.23126167
Pair 0 15, 1 5:     -40.91522640
Pair 0 15, 2 0:  286667.72311685
Pair 0 15, 2 2:   18789.51961316
Pair 0 15, 3 0:       1.12566925
Pair 0 16, 1 0:     -39.74156759
Pair 0 16, 1 1:     -28.29835286
Pair 0 16, 1 2:     -28.29835286
Pair 0 16, 1 5:     -37.79041122
Pair 0 16, 2 0:    1672.74079776
Pair 0 16, 2 2:     477.33809366
Pair 0 16, 3 0:       1.09206055
Pair 0 17, 1 0:     -41.36933561
Pair 0 17, 1 1:     -27.06625178
Pair 0 17, 1 2:     -27.06625178
Pair 0 17, 1 5:     -39.53168629
Pair 0 17, 2 0:   57634.57757711
Pair 0 17, 2 2:  160947.99430511
Pair 0 17, 3 0:       1.04256569
Pair 0 19, 1 0:     -36.59594161
Pair 0 19, 1 1:     -19.87385472
Pair 0 19, 1 2:     -19.87385472
Pair 0 19, 1 5:     -34.07181781
Pair 0 19, 2 0:      93.23381055
Pair 0 19, 2 2:      24.11658207
Pair 0 19, 3 0:       1.10616703
Pair 0 20, 1 0:     -40.94006907
Pair 0 20, 1 1:     -31.57144482
Pair 0 20, 1 2:     -31.57144482
Pair 0 20, 1 5:     -38.90447519
Pair 0 20, 2 0:      91.25933008
Pair 0 20, 2 2:      22.46756929
Pair 0 20, 3 0:       1.14128395
Pair 0 21, 1 0:     -38.81303805
Pair 0 21, 1 1:     -57.28711003
Pair 0 21, 1 2:     -57.28711003
Pair 0 21, 1 5:     -36.70372868
Pair 0 21, 2 0:      -1.89195275
Pair 0 21, 2 2:      -1.67904422
Pair 0 21, 3 0:       1.18050982
Pair 0 22, 1 0:     -36.66747611
Pair 0 22, 1 1:     -56.12355142
Pair 0 22, 1 2:     -56.12355142
Pair 0 22, 1 5:     -34.34473950
Pair 0 22, 2 0:      -0.62354024
Pair 0 22, 2 2:      -0.79104871
Pair 0 22, 3 0:       1.15240078
Pair 0 25, 1 0:     -32.53952530
Pair 0 25, 1 1:     -43.12212750
Pair 0 25, 1 2:     -43.12212750
Pair 0 25, 1 5:     -30.05905656
Pair 0 25, 2 0:       0.63144855
Pair 0 25, 2 2:       0.87952524
Pair 0 25, 3 0:       1.16617958
Pair 0 26, 1 0:     -36.23571237
Pair 0 26, 1 1:     -50.92210905
Pair 0 26, 1 2:     -50.92210905
Pair 0 26, 1 5:     -33.80876669
Pair 0 26, 2 0:       0.25866532
Pair 0 26, 2 2:       0.59205196
Pair 0 26, 3 0:       1.19726346
Pair 0 33, 1 0:     -48.61192718
Pair 0 33, 1 1:     -67.13145250
Pair 0 33, 1 2:     -67.13145250
Pair 0 33, 1 5:     -46.29067327
Pair 0 33, 2 0:      -1.09130146
Pair 0 33, 2 2:      -0.42622706
Pair 0 33, 3 0:       1.24813151
Pair 0 34, 1 0:     -44.47391159
Pair 0 34, 1 1:     -76.87367214
Pair 0 34, 1 2:     -76.87367214
Pair 0 34, 1 5:     -41.13739937
Pair 0 34, 2 0:      -0.83979109
Pair 0 34, 2 2:      -0.26673957
Pair 0 34, 3 0:       1.22080320
Pair 1 0, 2 0:      -3.37667099
Pair 1 0, 2 2:      -3.37882096
Pair 1 0, 3 0:      -1.70521089
Pair 1 1, 2 0:       8.49442798
Pair 1 1, 2 2:      -2.59348376
Pair 1 1, 3 0:      -1.64141463
Pair 1 2, 2 0:       8.49442798
Pair 1 2, 2 2:      -2.59348376
Pair 1 2, 3 0:      -1.64141463
Pair 1 5, 2 0:      -3.29757691
Pair 1 5, 2 2:      -3.29259172
Pair 1 5, 3 0:      -1.66162505